LAMMPS data file. msi2lmp v3.9.11 / 6 Sep 2024 / CGCMM for s10

   6734 atoms

  14 atom types

   -13.765681183    64.319818817 xlo xhi
     2.662789154    80.748289154 ylo yhi
    -6.151296625    71.934203375 zlo zhi

Masses

   1  15.999400 # o2e
   2  12.011150 # c43o
   3  1.007970 # h1
   4  15.999400 # o2h
   5  1.007970 # h1o
   6  12.011150 # c4o
   7  15.999400 # o1-
   8  15.999400 # o
   9  12.011150 # c
  10  12.011150 # c3l
  11  12.011150 # c4
  12  1.007970 # h
  13  12.011150 # c2=
  14  15.999400 # o1=*

Atoms # full

      1      1   1 -0.320000    30.842791538    69.383222725    35.658863127   0   0   0 # o2e
      2      1   2  0.107000    33.564358938    69.565377033    35.910900040   0   0   0 # c43o
      3      1   3  0.053000    34.559254314    69.298345626    35.519241822   0   0   0 # h1
      4      1   2  0.107000    32.914074851    70.450869442    34.841141642   0   0   0 # c43o
      5      1   3  0.053000    33.331349601    71.468938029    34.912906597   0   0   0 # h1
      6      1   2  0.107000    31.372322545    70.498941895    34.931686401   0   0   0 # c43o
      7      1   3  0.053000    30.973725569    70.490681723    33.896133667   0   0   0 # h1
      8      1   2  0.267000    31.530318869    68.209355692    35.298691912   0   0   0 # c43o
      9      1   3  0.053000    31.745844287    68.183824308    34.210787279   0   0   0 # h1
     10      1   2  0.107000    32.799465795    68.258161293    36.124198715   0   0   0 # c43o
     11      1   3  0.053000    32.429294309    68.265424518    37.165544029   0   0   0 # h1
     12      1   4 -0.570000    30.782474441    67.040106590    35.620444857   0   0   0 # o2h
     13      1   5  0.410000    29.914668179    67.302563751    35.275612379   0   0   0 # h1o
     14      1   4 -0.570000    33.579372337    67.065240703    35.941593983   0   0   0 # o2h
     15      1   5  0.410000    32.893345916    66.488101609    35.591555548   0   0   0 # h1o
     16      1   4 -0.570000    33.789608939    70.299265344    37.127125291   0   0   0 # o2h
     17      1   5  0.410000    33.630797707    69.687292674    37.833010582   0   0   0 # h1o
     18      1   1 -0.160000    33.331725120    69.899117487    33.582151797   0   0   0 # o2e
     19      1   6  0.054000    30.839398129    71.723210938    35.620118805   0   0   0 # c4o
     20      1   3  0.053000    31.124656356    72.649199113    35.090790379   0   0   0 # h1
     21      1   3  0.053000    31.291827014    71.774562443    36.622448014   0   0   0 # h1
     22      1   4 -0.570000    29.432222704    71.717276328    35.862798222   0   0   0 # o2h
     23      1   5  0.410000    28.945918129    71.665031589    34.983404831   0   0   0 # h1o
     24      1   1 -0.320000    36.520558075    71.030381676    30.200896429   0   0   0 # o2e
     25      1   2  0.107000    33.755643298    71.235387127    31.098552733   0   0   0 # c43o
     26      1   3  0.053000    33.536487007    72.133258088    31.702560854   0   0   0 # h1
     27      1   2  0.107000    34.215424663    71.735295994    29.729932432   0   0   0 # c43o
     28      1   3  0.053000    34.038228643    70.930255539    28.990517867   0   0   0 # h1
     29      1   2  0.107000    35.701553739    72.098073718    29.711197177   0   0   0 # c43o
     30      1   3  0.053000    35.812808732    72.987634328    30.362700317   0   0   0 # h1
     31      1   2  0.267000    36.246049857    70.834750154    31.584989231   0   0   0 # c43o
     32      1   3  0.053000    36.385827487    71.797397524    32.111925988   0   0   0 # h1
     33      1   2  0.107000    34.809212248    70.433134026    31.852312820   0   0   0 # c43o
     34      1   3  0.053000    34.685189795    69.385850153    31.527431866   0   0   0 # h1
     35      1   1 -0.160000    37.166037686    69.929546608    32.213463980   0   0   0 # o2e
     36      1   1 -0.160000    34.648589630    70.482033211    33.282564404   0   0   0 # o2e
     37      1   4 -0.570000    32.607520152    70.386746633    31.063413213   0   0   0 # o2h
     38      1   5  0.410000    31.769958108    70.851201236    30.852131687   0   0   0 # h1o
     39      1   4 -0.570000    33.527952754    72.921925111    29.324854045   0   0   0 # o2h
     40      1   5  0.410000    32.622429248    72.668486294    29.073815471   0   0   0 # h1o
     41      1   6  0.054000    36.220477204    72.515528862    28.362824689   0   0   0 # c4o
     42      1   3  0.053000    35.590617227    73.328615802    27.956262114   0   0   0 # h1
     43      1   3  0.053000    36.154409047    71.670715310    27.652432974   0   0   0 # h1
     44      1   4 -0.570000    37.578737301    72.982201507    28.440705874   0   0   0 # o2h
     45      1   5  0.410000    37.686135849    73.463242285    27.624859595   0   0   0 # h1o
     46      1   1 -0.320000    39.318055346    67.018610949    29.449905664   0   0   0 # o2e
     47      1   2  0.107000    38.497057127    66.802436315    31.988642951   0   0   0 # c43o
     48      1   3  0.053000    37.696097368    66.245933467    31.462632554   0   0   0 # h1
     49      1   2  0.107000    39.823095102    66.126444346    31.715397347   0   0   0 # c43o
     50      1   3  0.053000    40.577476008    66.748183512    32.232968280   0   0   0 # h1
     51      1   2  0.107000    40.103062037    66.090127666    30.213939517   0   0   0 # c43o
     52      1   3  0.053000    39.723884404    65.118815293    29.859688247   0   0   0 # h1
     53      1   2  0.267000    39.194620728    68.297718085    30.069025861   0   0   0 # c43o
     54      1   3  0.053000    38.521440355    68.855258754    29.395318035   0   0   0 # h1
     55      1   2  0.107000    38.508113210    68.207685117    31.434744955   0   0   0 # c43o
     56      1   3  0.053000    39.090612834    68.817445547    32.145400655   0   0   0 # h1
     57      1   4 -0.570000    40.441434928    68.983602023    30.114272781   0   0   0 # o2h
     58      1   5  0.410000    40.195133982    69.898494197    30.245903042   0   0   0 # h1o
     59      1   1 -0.160000    37.174217711    68.713738878    31.384321533   0   0   0 # o2e
     60      1   4 -0.570000    38.211621426    66.812520287    33.388736466   0   0   0 # o2h
     61      1   5  0.410000    37.389146226    67.300925331    33.480864414   0   0   0 # h1o
     62      1   1 -0.160000    39.969670606    64.807436807    32.267657855   0   0   0 # o2e
     63      1   6  0.054000    41.556286060    66.138227030    29.816324868   0   0   0 # c4o
     64      1   3  0.053000    42.082509084    65.225861944    30.130304645   0   0   0 # h1
     65      1   3  0.053000    42.085710971    66.989119723    30.286069043   0   0   0 # h1
     66      1   4 -0.570000    41.697096473    66.220541220    28.400037419   0   0   0 # o2h
     67      1   5  0.410000    41.213393890    67.023395113    28.190604030   0   0   0 # h1o
     68      1   1 -0.320000    37.855751320    62.277805360    33.188297551   0   0   0 # o2e
     69      1   2  0.107000    39.246436800    60.327335313    31.784184362   0   0   0 # c43o
     70      1   3  0.053000    40.202912817    60.309048837    32.338958396   0   0   0 # h1
     71      1   2  0.107000    38.192903199    59.944461528    32.818389213   0   0   0 # c43o
     72      1   3  0.053000    37.197476090    59.891900159    32.335757158   0   0   0 # h1
     73      1   2  0.107000    38.127229320    61.041807967    33.863954012   0   0   0 # c43o
     74      1   3  0.053000    39.108648848    61.083488888    34.377024164   0   0   0 # h1
     75      1   2  0.267000    38.954798974    62.714659305    32.385969189   0   0   0 # c43o
     76      1   3  0.053000    39.883886157    62.696187390    32.988201466   0   0   0 # h1
     77      1   2  0.107000    39.093470351    61.726256405    31.250016850   0   0   0 # c43o
     78      1   3  0.053000    38.145494255    61.780462098    30.677732452   0   0   0 # h1
     79      1   1 -0.160000    38.788140198    64.029242010    31.849632615   0   0   0 # o2e
     80      1   1 -0.160000    39.426526943    59.389217589    30.711374439   0   0   0 # o2e
     81      1   4 -0.570000    38.507377398    58.660000101    33.359070794   0   0   0 # o2h
     82      1   5  0.410000    38.325008269    58.655899428    34.298161667   0   0   0 # h1o
     83      1   6  0.054000    37.096408763    60.907339947    34.947635457   0   0   0 # c4o
     84      1   3  0.053000    37.202683557    59.960285103    35.507743856   0   0   0 # h1
     85      1   3  0.053000    36.084074211    60.926630155    34.503937814   0   0   0 # h1
     86      1   4 -0.570000    37.263426097    62.012427645    35.832643539   0   0   0 # o2h
     87      1   5  0.410000    36.664373361    61.909728127    36.568282885   0   0   0 # h1o
     88      1   4 -0.570000    40.187378288    62.010047773    30.362993604   0   0   0 # o2h
     89      1   5  0.410000    40.022179726    62.887531366    30.020319663   0   0   0 # h1o
     90      1   1 -0.320000    36.350716661    57.719567579    30.598189977   0   0   0 # o2e
     91      1   2  0.107000    37.959307494    55.505743027    29.884174033   0   0   0 # c43o
     92      1   3  0.053000    38.650606805    55.394882386    30.746523228   0   0   0 # h1
     93      1   2  0.107000    36.550060440    55.330381256    30.420546691   0   0   0 # c43o
     94      1   3  0.053000    35.873048649    55.292814391    29.547691933   0   0   0 # h1
     95      1   2  0.107000    36.113195637    56.495475135    31.291466058   0   0   0 # c43o
     96      1   3  0.053000    36.699940840    56.453175902    32.231453719   0   0   0 # h1
     97      1   2  0.267000    37.750826190    57.873256593    30.368425453   0   0   0 # c43o
     98      1   3  0.053000    38.297919777    57.588150272    31.285524696   0   0   0 # h1
     99      1   2  0.107000    38.165639513    56.885202948    29.302201200   0   0   0 # c43o
    100      1   3  0.053000    37.474465224    56.993478658    28.444088016   0   0   0 # h1
    101      1   1 -0.160000    38.115401153    59.218178690    30.071796190   0   0   0 # o2e
    102      1   4 -0.570000    38.254080770    54.480894257    28.927757093   0   0   0 # o2h
    103      1   5  0.410000    37.765452709    53.716815142    29.253496152   0   0   0 # h1o
    104      1   1 -0.160000    36.437099197    54.101672655    31.133955542   0   0   0 # o2e
    105      1   6  0.054000    34.653928977    56.528016640    31.686205151   0   0   0 # c4o
    106      1   3  0.053000    34.026643837    56.611918162    30.779644393   0   0   0 # h1
    107      1   3  0.053000    34.498093722    57.446898752    32.283567055   0   0   0 # h1
    108      1   4 -0.570000    34.309226224    55.375884897    32.438779183   0   0   0 # o2h
    109      1   5  0.410000    33.436250541    55.505785654    32.799807212   0   0   0 # h1o
    110      1   4 -0.570000    39.510151125    57.103661931    28.836399916   0   0   0 # o2h
    111      1   5  0.410000    39.574343487    58.054002732    28.740527740   0   0   0 # h1o
    112      1   1 -0.320000    35.839507445    49.828823635    31.744170900   0   0   0 # o2e
    113      1   2  0.107000    34.801843572    51.347886062    29.607479653   0   0   0 # c43o
    114      1   3  0.053000    35.488282779    51.183443219    28.753561743   0   0   0 # h1
    115      1   2  0.107000    34.247613329    49.985073968    29.932359487   0   0   0 # c43o
    116      1   3  0.053000    33.368265769    50.078831274    30.593719142   0   0   0 # h1
    117      1   2  0.107000    35.297796089    49.131722016    30.611640133   0   0   0 # c43o
    118      1   3  0.053000    36.090543870    48.946139951    29.860087644   0   0   0 # h1
    119      1   2  0.267000    36.563652239    50.984307557    31.336443157   0   0   0 # c43o
    120      1   3  0.053000    37.319276404    50.705938915    30.581008878   0   0   0 # h1
    121      1   2  0.107000    35.627055204    51.982270760    30.687302891   0   0   0 # c43o
    122      1   3  0.053000    34.938987182    52.369224426    31.460511009   0   0   0 # h1
    123      1   4 -0.570000    33.794272462    52.278096778    29.191646125   0   0   0 # o2h
    124      1   5  0.410000    33.198682003    51.757725707    28.648752728   0   0   0 # h1o
    125      1   1 -0.160000    33.863216422    49.339295056    28.720203379   0   0   0 # o2e
    126      1   6  0.054000    34.807162645    47.769639528    31.021782634   0   0   0 # c4o
    127      1   3  0.053000    34.199292937    47.320376462    30.212937440   0   0   0 # h1
    128      1   3  0.053000    34.156108247    47.850429702    31.911306406   0   0   0 # h1
    129      1   4 -0.570000    35.914171785    46.909337734    31.294201014   0   0   0 # o2h
    130      1   5  0.410000    35.540072587    46.022861694    31.328000596   0   0   0 # h1o
    131      1   1 -0.160000    36.358045737    53.064052933    30.104234607   0   0   0 # o2e
    132      1   4 -0.570000    37.304531026    51.534638659    32.415973654   0   0   0 # o2h
    133      1   5  0.410000    36.786764081    51.317109648    33.189534758   0   0   0 # h1o
    134      1   1 -0.320000    33.737412514    50.289392589    26.044994176   0   0   0 # o2e
    135      1   2  0.107000    32.765819217    47.687499441    25.187670269   0   0   0 # c43o
    136      1   3  0.053000    31.799378152    47.588154875    24.670546434   0   0   0 # h1
    137      1   2  0.107000    33.663289816    48.580572154    24.349541675   0   0   0 # c43o
    138      1   3  0.053000    34.691182114    48.291433291    24.637425567   0   0   0 # h1
    139      1   2  0.107000    33.549128095    50.066171487    24.646985975   0   0   0 # c43o
    140      1   3  0.053000    32.544195774    50.415939741    24.343380444   0   0   0 # h1
    141      1   2  0.267000    32.653401640    49.713488207    26.787304379   0   0   0 # c43o
    142      1   3  0.053000    31.710000576    50.150991170    26.410045938   0   0   0 # h1
    143      1   2  0.107000    32.483977103    48.200107813    26.594057971   0   0   0 # c43o
    144      1   3  0.053000    33.209026479    47.689096561    27.252359194   0   0   0 # h1
    145      1   4 -0.570000    33.399854360    46.415990616    25.288443046   0   0   0 # o2h
    146      1   5  0.410000    32.869235685    45.729795808    24.880270418   0   0   0 # h1o
    147      1   1 -0.160000    33.539705508    48.323377353    22.944082817   0   0   0 # o2e
    148      1   6  0.054000    34.576120736    50.861742255    23.875078084   0   0   0 # c4o
    149      1   3  0.053000    34.411226219    50.729767516    22.789742282   0   0   0 # h1
    150      1   3  0.053000    35.576441136    50.455351406    24.087971616   0   0   0 # h1
    151      1   4 -0.570000    34.652797579    52.260915990    24.169643200   0   0   0 # o2h
    152      1   5  0.410000    33.793840986    52.611073910    23.943107152   0   0   0 # h1o
    153      1   1 -0.160000    32.706630418    50.070011766    28.175813614   0   0   0 # o2e
    154      1   4 -0.570000    31.156257048    47.900161383    27.047057507   0   0   0 # o2h
    155      1   5  0.410000    31.077337153    46.943784396    27.178692992   0   0   0 # h1o
    156      1   1 -0.320000    32.094155112    49.923060118    18.531682336   0   0   0 # o2e
    157      1   2  0.107000    32.357017412    49.256077741    21.176845106   0   0   0 # c43o
    158      1   3  0.053000    33.407109740    49.572266428    21.055657411   0   0   0 # h1
    159      1   2  0.107000    31.533097151    50.502530382    20.883724467   0   0   0 # c43o
    160      1   3  0.053000    30.469859434    50.220764175    20.978894104   0   0   0 # h1
    161      1   2  0.107000    31.879594724    50.984964728    19.467218622   0   0   0 # c43o
    162      1   3  0.053000    32.864638048    51.467750002    19.581768109   0   0   0 # h1
    163      1   2  0.267000    31.400122408    48.738680845    18.929802114   0   0   0 # c43o
    164      1   3  0.053000    31.477996243    48.054134663    18.072168022   0   0   0 # h1
    165      1   2  0.107000    32.136385422    48.153660453    20.135494548   0   0   0 # c43o
    166      1   3  0.053000    31.498863599    47.368902728    20.577090008   0   0   0 # h1
    167      1   1 -0.160000    32.207386359    48.812183976    22.530431444   0   0   0 # o2e
    168      1   4 -0.570000    31.754092048    51.559281406    21.830318951   0   0   0 # o2h
    169      1   5  0.410000    30.879640250    51.795910804    22.124406767   0   0   0 # h1o
    170      1   6  0.054000    30.979384136    51.997597437    18.811101707   0   0   0 # c4o
    171      1   3  0.053000    30.674021681    52.793478005    19.498189543   0   0   0 # h1
    172      1   3  0.053000    30.061162604    51.491866947    18.467059978   0   0   0 # h1
    173      1   4 -0.570000    31.590787994    52.636654576    17.683606925   0   0   0 # o2h
    174      1   5  0.410000    31.352826507    52.079100336    16.939682036   0   0   0 # h1o
    175      1   1 -0.160000    30.008538130    48.887250082    19.279042532   0   0   0 # o2e
    176      1   4 -0.570000    33.411570130    47.590597804    19.796653729   0   0   0 # o2h
    177      1   5  0.410000    33.301534316    46.651579941    19.641314490   0   0   0 # h1o
    178      1   1 -0.320000    27.112188141    48.764858211    17.005034668   0   0   0 # o2e
    179      1   2 -0.293000    29.225711537    47.103613505    16.013611689   0   0   0 # c43o
    180      1   3  0.053000    29.760477518    46.182490884    15.731383027   0   0   0 # h1
    181      1   2  0.107000    27.966033093    47.286399534    15.177574110   0   0   0 # c43o
    182      1   3  0.053000    28.252545324    47.326793812    14.114231012   0   0   0 # h1
    183      1   2  0.107000    27.310028958    48.603047822    15.582629230   0   0   0 # c43o
    184      1   3  0.053000    26.284422295    48.562443605    15.187031511   0   0   0 # h1
    185      1   2  0.267000    28.223340034    48.391975574    17.867031605   0   0   0 # c43o
    186      1   3  0.053000    27.721199816    48.250883804    18.835951295   0   0   0 # h1
    187      1   2  0.107000    28.859854628    47.075683244    17.480939681   0   0   0 # c43o
    188      1   3  0.053000    29.766883849    46.942838105    18.087188279   0   0   0 # h1
    189      1   7 -0.760000    30.052362675    48.115876262    15.791748023   0   0   0 # o1-
    190      1   1 -0.160000    27.083868463    46.144401449    15.350103445   0   0   0 # o2e
    191      1   6  0.054000    27.954505199    49.826443619    14.958544742   0   0   0 # c4o
    192      1   3  0.053000    28.237276069    49.614278760    13.911262586   0   0   0 # h1
    193      1   3  0.053000    28.884011696    50.061008076    15.494598118   0   0   0 # h1
    194      1   4 -0.570000    27.169813604    51.025856589    15.001854834   0   0   0 # o2h
    195      1   5  0.410000    26.357284584    50.813992526    14.550648470   0   0   0 # h1o
    196      1   1 -0.160000    29.260150655    49.368034756    18.087654349   0   0   0 # o2e
    197      1   4 -0.570000    27.992664010    45.988755138    17.799446689   0   0   0 # o2h
    198      1   5  0.410000    28.357261510    45.251966157    17.315746942   0   0   0 # h1o
    199      1   1 -0.320000    23.019075363    44.164586860    13.915406023   0   0   0 # o2e
    200      1   2  0.107000    25.756140496    43.466017956    13.876279578   0   0   0 # c43o
    201      1   3  0.053000    26.036909966    43.588186075    12.811793880   0   0   0 # h1
    202      1   2  0.107000    25.339098564    44.839680137    14.370705731   0   0   0 # c43o
    203      1   3  0.053000    25.192342852    44.782825435    15.463487485   0   0   0 # h1
    204      1   2  0.107000    24.015562943    45.176976088    13.706547945   0   0   0 # c43o
    205      1   3  0.053000    24.226070535    45.297533265    12.626118036   0   0   0 # h1
    206      1   2  0.267000    23.306274470    42.875877786    13.360476085   0   0   0 # c43o
    207      1   3  0.053000    23.417549024    42.954075537    12.263521437   0   0   0 # h1
    208      1   2  0.107000    24.656012107    42.406195956    13.911323467   0   0   0 # c43o
    209      1   3  0.053000    24.496376711    42.141327150    14.974935848   0   0   0 # h1
    210      1   1 -0.160000    26.302770625    45.894581634    14.093195173   0   0   0 # o2e
    211      1   6  0.054000    23.369855809    46.437596014    14.187464016   0   0   0 # c4o
    212      1   3  0.053000    24.075693728    47.276748013    14.250964115   0   0   0 # h1
    213      1   3  0.053000    22.976445317    46.265632289    15.208097275   0   0   0 # h1
    214      1   4 -0.570000    22.323702460    46.875091774    13.325367098   0   0   0 # o2h
    215      1   5  0.410000    21.662398351    46.181856583    13.343104192   0   0   0 # h1o
    216      1   1 -0.160000    22.288269533    41.878183761    13.619555603   0   0   0 # o2e
    217      1   4 -0.570000    25.172789687    41.261227430    13.218023608   0   0   0 # o2h
    218      1   5  0.410000    24.638565657    40.503684675    13.461898014   0   0   0 # h1o
    219      1   1 -0.320000    18.392055946    40.214599817    11.382227508   0   0   0 # o2e
    220      1   2  0.107000    20.327032136    39.640163978    13.012663544   0   0   0 # c43o
    221      1   3  0.053000    20.629996556    39.304026744    11.999959599   0   0   0 # h1
    222      1   2  0.107000    20.090079709    41.147015496    12.970029263   0   0   0 # c43o
    223      1   3  0.053000    19.861248949    41.449466379    14.006665893   0   0   0 # h1
    224      1   2  0.107000    18.877148095    41.399629080    12.033468978   0   0   0 # c43o
    225      1   3  0.053000    19.289289742    41.964611575    11.185548746   0   0   0 # h1
    226      1   2  0.267000    17.968452257    39.184559493    12.292914331   0   0   0 # c43o
    227      1   3  0.053000    17.968749839    38.284830869    11.659060313   0   0   0 # h1
    228      1   2  0.107000    19.022062954    38.950181028    13.373866108   0   0   0 # c43o
    229      1   3  0.053000    18.669331922    39.408051540    14.320216175   0   0   0 # h1
    230      1   1 -0.160000    21.229157131    41.956616720    12.553941087   0   0   0 # o2e
    231      1   6  0.054000    17.710640020    42.241880906    12.536425559   0   0   0 # c4o
    232      1   3  0.053000    17.650283737    42.354852030    13.633810929   0   0   0 # h1
    233      1   3  0.053000    16.783681785    41.727488500    12.225533443   0   0   0 # h1
    234      1   4 -0.570000    17.744753949    43.530716813    11.919863373   0   0   0 # o2h
    235      1   5  0.410000    16.840368531    43.848798700    11.896741167   0   0   0 # h1o
    236      1   1 -0.160000    16.659947417    39.317783164    12.862897275   0   0   0 # o2e
    237      1   4 -0.570000    19.245361847    37.551132990    13.608853103   0   0   0 # o2h
    238      1   5  0.410000    18.375102768    37.160849790    13.734895754   0   0   0 # h1o
    239      1   1 -0.320000    12.407732134    37.188587598    12.630043064   0   0   0 # o2e
    240      1   2  0.107000    14.381863751    37.448822081    14.310303571   0   0   0 # c43o
    241      1   3  0.053000    15.318319488    37.461583555    14.883608963   0   0   0 # h1
    242      1   2  0.107000    14.572803811    38.275967261    13.050874407   0   0   0 # c43o
    243      1   3  0.053000    14.476200465    39.325552976    13.379270101   0   0   0 # h1
    244      1   2  0.107000    13.474185200    37.935392764    12.032431096   0   0   0 # c43o
    245      1   3  0.053000    13.948174472    37.321564750    11.248235975   0   0   0 # h1
    246      1   2  0.267000    12.832950141    35.889285046    13.064555805   0   0   0 # c43o
    247      1   3  0.053000    13.199860510    35.339670582    12.180679341   0   0   0 # h1
    248      1   2  0.107000    14.011672096    35.997579823    14.060386195   0   0   0 # c43o
    249      1   3  0.053000    13.674565514    35.625267350    15.046495583   0   0   0 # h1
    250      1   1 -0.160000    15.890398398    38.100624045    12.497530873   0   0   0 # o2e
    251      1   6  0.054000    12.839498983    39.125620203    11.334358030   0   0   0 # c4o
    252      1   3  0.053000    13.169094649    40.108893104    11.718441621   0   0   0 # h1
    253      1   3  0.053000    11.750911632    39.077956351    11.516331187   0   0   0 # h1
    254      1   4 -0.570000    13.090434970    39.064269694     9.928204225   0   0   0 # o2h
    255      1   5  0.410000    12.351789968    39.499375655     9.499834426   0   0   0 # h1o
    256      1   1 -0.160000    11.786218887    35.082223636    13.605570118   0   0   0 # o2e
    257      1   4 -0.570000    15.172760222    35.232735716    13.680970360   0   0   0 # o2h
    258      1   5  0.410000    14.898463833    34.323980810    13.834039274   0   0   0 # h1o
    259      1   1 -0.320000    10.754463461    31.455379481    16.306682160   0   0   0 # o2e
    260      1   2  0.107000    11.054046584    32.013053344    13.491713141   0   0   0 # c43o
    261      1   3  0.053000    11.780002176    32.124453940    12.669096762   0   0   0 # h1
    262      1   2 -0.293000    11.141522394    30.590157317    14.004386145   0   0   0 # c43o
    263      1   3  0.053000    10.695311622    29.897616604    13.269513768   0   0   0 # h1
    264      1   2  0.107000    10.434202138    30.426662384    15.350427035   0   0   0 # c43o
    265      1   3  0.053000    10.752264308    29.470803399    15.794339988   0   0   0 # h1
    266      1   2  0.267000    11.819386301    32.290222131    15.875244442   0   0   0 # c43o
    267      1   3  0.053000    12.732248566    31.689420659    15.707686336   0   0   0 # h1
    268      1   2  0.107000    11.428771153    33.000655506    14.584407846   0   0   0 # c43o
    269      1   3  0.053000    10.532142520    33.589129414    14.844585146   0   0   0 # h1
    270      1   7 -0.760000    12.429853661    30.270378685    14.105913388   0   0   0 # o1-
    271      1   6  0.054000     8.905330581    30.395800820    15.235431667   0   0   0 # c4o
    272      1   3  0.053000     8.535755923    30.848728299    14.299701941   0   0   0 # h1
    273      1   3  0.053000     8.497880928    31.025202760    16.039893977   0   0   0 # h1
    274      1   4 -0.570000     8.284245853    29.106240625    15.352457267   0   0   0 # o2h
    275      1   5  0.410000     8.197725165    28.835790831    14.438200629   0   0   0 # h1o
    276      1   1 -0.160000    12.461617053    33.887037642    14.144418240   0   0   0 # o2e
    277      1   1 -0.320000     8.162739826    30.736709636    10.662718967   0   0   0 # o2e
    278      1   2  0.107000     9.806914608    30.396340632     8.338648869   0   0   0 # c43o
    279      1   3  0.053000     9.392607169    29.706055573     7.590737932   0   0   0 # h1
    280      1   2  0.107000     8.820972430    31.584043284     8.393102901   0   0   0 # c43o
    281      1   3  0.053000     9.401560927    32.460114622     8.724594997   0   0   0 # h1
    282      1   2  0.107000     7.670232167    31.383044218     9.461961599   0   0   0 # c43o
    283      1   3  0.053000     6.963058009    30.677099040     8.986127961   0   0   0 # h1
    284      1   2 -0.133000     8.662641790    29.447685819    10.347632413   0   0   0 # c43o
    285      1   3  0.053000     7.925186974    28.883724421     9.747873845   0   0   0 # h1
    286      1   2  0.107000     9.946957006    29.656216263     9.644915179   0   0   0 # c43o
    287      1   3  0.053000    10.563345134    30.280879356    10.319584464   0   0   0 # h1
    288      1   7 -0.760000     8.936945675    28.698785717    11.400263592   0   0   0 # o1-
    289      1   4 -0.570000    10.471753370    28.328842295     9.649318922   0   0   0 # o2h
    290      1   5  0.410000     9.944586270    28.154906186    10.474941513   0   0   0 # h1o
    291      1   4 -0.570000    11.110781174    30.771499165     7.854811014   0   0   0 # o2h
    292      1   5  0.410000    11.465094801    31.282515040     8.578281354   0   0   0 # h1o
    293      1   1 -0.160000     8.348987841    31.872807474     7.039013374   0   0   0 # o2e
    294      1   6  0.054000     6.844064757    32.608177771     9.910504813   0   0   0 # c4o
    295      1   3  0.053000     5.777591622    32.498784394     9.614951889   0   0   0 # h1
    296      1   3  0.053000     7.164883539    33.568511850     9.460316737   0   0   0 # h1
    297      1   4 -0.570000     6.876235204    32.762905209    11.343503313   0   0   0 # o2h
    298      1   5  0.410000     6.148159198    33.335463719    11.590225001   0   0   0 # h1o
    299      1   1 -0.320000    10.482281636    31.501381871     2.599104803   0   0   0 # o2e
    300      1   2  0.107000     8.482111181    32.899642976     4.009661227   0   0   0 # c43o
    301      1   3  0.053000     8.525537515    33.803330544     4.639922238   0   0   0 # h1
    302      1   2  0.107000     8.927539568    33.363374924     2.589385334   0   0   0 # c43o
    303      1   3  0.053000     8.125672894    33.026520946     1.905540627   0   0   0 # h1
    304      1   2  0.107000    10.262419498    32.819951616     2.068664016   0   0   0 # c43o
    305      1   3  0.053000    11.052452253    33.502932244     2.433651697   0   0   0 # h1
    306      1   2  0.267000    10.620166577    31.519658478     4.033923963   0   0   0 # c43o