LAMMPS data file. msi2lmp v3.9.11 / 6 Sep 2024 / CGCMM for s11

   6734 atoms

  13 atom types

    12.367428537    80.581428537 xlo xhi
    -2.217044310    65.996955690 ylo yhi
     1.170408776    69.384408776 zlo zhi

Masses

   1  15.999400 # o2e
   2  12.011150 # c43o
   3  1.007970 # h1
   4  15.999400 # o2h
   5  1.007970 # h1o
   6  12.011150 # c4o
   7  15.999400 # o1-
   8  15.999400 # o
   9  12.011150 # c
  10  12.011150 # c4
  11  1.007970 # h
  12  12.011150 # c2=
  13  15.999400 # o1=*

Atoms # full

      1      1   1 -0.320000    22.727651444    54.563113700    17.773057896   1   0   0 # o2e
      2      1   2  0.107000    24.854690463    53.161485201    18.647199444   1   0   0 # c43o
      3      1   3  0.053000    25.612812086    52.369610921    18.780464039   1   0   0 # h1
      4      1   2  0.107000    24.980158852    53.692690160    17.226051085   1   0   0 # c43o
      5      1   3  0.053000    25.966920943    54.176618025    17.116843197   1   0   0 # h1
      6      1   2  0.107000    23.860970212    54.685017838    16.901933758   1   0   0 # c43o
      7      1   3  0.053000    23.538282613    54.471426162    15.866034463   1   0   0 # h1
      8      1   2  0.267000    22.409141354    53.193150252    17.998061386   1   0   0 # c43o
      9      1   3  0.053000    22.453038387    52.655920890    17.028649136   1   0   0 # h1
     10      1   2  0.107000    23.473521377    52.557173649    18.904480155   1   0   0 # c43o
     11      1   3  0.053000    23.202037824    52.801961961    19.946927504   1   0   0 # h1
     12      1   4 -0.570000    21.090575868    53.032834466    18.502592692   1   0   0 # o2h
     13      1   5  0.410000    20.966504339    52.090614950    18.483415612   1   0   0 # h1o
     14      1   4 -0.570000    23.414515811    51.128085090    18.746020856   1   0   0 # o2h
     15      1   5  0.410000    24.115155682    50.748313594    19.268884896   1   0   0 # h1o
     16      1   4 -0.570000    25.166249787    54.243123420    19.538168262   1   0   0 # o2h
     17      1   5  0.410000    25.032988484    53.934611112    20.430038174   1   0   0 # h1o
     18      1   1 -0.160000    24.927676315    52.590943050    16.309687642   1   0   0 # o2e
     19      1   6  0.054000    24.254502426    56.131141338    16.960875296   1   0   0 # c4o
     20      1   3  0.053000    25.073459119    56.360788543    16.265894237   1   0   0 # h1
     21      1   3  0.053000    24.609997375    56.378916539    17.978683417   1   0   0 # h1
     22      1   4 -0.570000    23.175758429    56.997669914    16.607741321   1   0   0 # o2h
     23      1   5  0.410000    22.468728838    56.715339615    17.188596786   1   0   0 # h1o
     24      1   1 -0.320000    27.607161691    49.890242419    13.674995506   1   0   0 # o2e
     25      1   2  0.107000    26.166987604    52.323057912    13.770817545   1   0   0 # c43o
     26      1   3  0.053000    26.925204973    53.088389635    14.030189358   1   0   0 # h1
     27      1   2  0.107000    26.597997501    51.669821823    12.481094508   1   0   0 # c43o
     28      1   3  0.053000    25.811758327    50.937348814    12.223839875   1   0   0 # h1
     29      1   2  0.107000    27.875779430    50.885645064    12.682471853   1   0   0 # c43o
     30      1   3  0.053000    28.674400468    51.574194681    13.021081494   1   0   0 # h1
     31      1   2  0.267000    27.355968085    50.475404749    14.962122885   1   0   0 # c43o
     32      1   3  0.053000    28.194637242    51.154109657    15.207372066   1   0   0 # h1
     33      1   2  0.107000    26.117025656    51.355814973    14.934278812   1   0   0 # c43o
     34      1   3  0.053000    25.236838639    50.702314394    14.806367458   1   0   0 # h1
     35      1   1 -0.160000    27.323334007    49.533880309    16.042920851   1   0   0 # o2e
     36      1   1 -0.160000    25.996487010    52.033461499    16.194192712   1   0   0 # o2e
     37      1   4 -0.570000    24.905506721    52.981000165    13.606863936   1   0   0 # o2h
     38      1   5  0.410000    25.046209048    53.591210659    12.885421648   1   0   0 # h1o
     39      1   4 -0.570000    26.666683329    52.656146303    11.445942261   1   0   0 # o2h
     40      1   5  0.410000    26.510353392    52.193394112    10.627593038   1   0   0 # h1o
     41      1   6  0.054000    28.393692540    50.193185707    11.454172335   1   0   0 # c4o
     42      1   3  0.053000    28.436730230    50.885302749    10.593609476   1   0   0 # h1
     43      1   3  0.053000    27.701005884    49.373044229    11.191404895   1   0   0 # h1
     44      1   4 -0.570000    29.699143089    49.677164502    11.706688508   1   0   0 # o2h
     45      1   5  0.410000    29.973804715    49.214869757    10.921659961   1   0   0 # h1o
     46      1   1 -0.320000    28.303484484    45.576293911    14.738122689   1   0   0 # o2e
     47      1   2  0.107000    26.751824570    46.212205055    16.818611040   1   0   0 # c43o
     48      1   3  0.053000    26.064883385    45.852845739    16.029305178   1   0   0 # h1
     49      1   2  0.107000    27.770680421    45.126013633    17.113945693   1   0   0 # c43o
     50      1   3  0.053000    28.592071372    45.622002427    17.665989630   1   0   0 # h1
     51      1   2  0.107000    28.311583435    44.587506670    15.786307162   1   0   0 # c43o
     52      1   3  0.053000    27.579065601    43.844799831    15.431188445   1   0   0 # h1
     53      1   2  0.267000    28.568749836    46.894947331    15.214148589   1   0   0 # c43o
     54      1   3  0.053000    28.449964553    47.537348735    14.326880295   1   0   0 # h1
     55      1   2  0.107000    27.559993366    47.383188567    16.270975514   1   0   0 # c43o
     56      1   3  0.053000    28.136097041    47.758836095    17.135710028   1   0   0 # h1
     57      1   4 -0.570000    29.909994014    47.023654455    15.675572688   1   0   0 # o2h
     58      1   5  0.410000    30.426523647    46.617513473    14.978867898   1   0   0 # h1o
     59      1   1 -0.160000    26.773359088    48.483258292    15.786935686   1   0   0 # o2e
     60      1   4 -0.570000    25.951596858    46.555402901    17.953648511   1   0   0 # o2h
     61      1   5  0.410000    25.057585795    46.627010339    17.615275033   1   0   0 # h1o
     62      1   1 -0.160000    27.364261319    44.061219829    17.985320279   1   0   0 # o2e
     63      1   6  0.054000    29.618500068    43.843461375    15.941222932   1   0   0 # c4o
     64      1   3  0.053000    29.550868422    43.167579031    16.814144600   1   0   0 # h1
     65      1   3  0.053000    30.428892470    44.552072316    16.160388878   1   0   0 # h1
     66      1   4 -0.570000    30.037808018    43.100164784    14.798284316   1   0   0 # o2h
     67      1   5  0.410000    29.512884834    42.303861727    14.796333553   1   0   0 # h1o
     68      1   1 -0.320000    24.341420395    43.927355426    17.351806581   1   0   0 # o2e
     69      1   2  0.107000    23.505744117    42.057757889    19.279590092   1   0   0 # c43o
     70      1   3  0.053000    23.674745504    42.716508891    20.151998271   1   0   0 # h1
     71      1   2  0.107000    22.524017640    42.780223885    18.362604681   1   0   0 # c43o
     72      1   3  0.053000    22.497562983    42.241558724    17.401377841   1   0   0 # h1
     73      1   2  0.107000    23.129765273    44.147104681    18.069071878   1   0   0 # c43o
     74      1   3  0.053000    23.334001419    44.651572196    19.030194227   1   0   0 # h1
     75      1   2  0.267000    25.333636735    43.303849367    18.163451732   1   0   0 # c43o
     76      1   3  0.053000    25.466233041    43.892310919    19.093903117   1   0   0 # h1
     77      1   2  0.107000    24.851168079    41.919724420    18.586493144   1   0   0 # c43o
     78      1   3  0.053000    24.707693058    41.336454272    17.662774754   1   0   0 # h1
     79      1   1 -0.160000    26.588359086    43.274494756    17.491240479   1   0   0 # o2e
     80      1   1 -0.160000    23.012296078    40.847555405    19.865344101   1   0   0 # o2e
     81      1   4 -0.570000    21.154951568    42.796735803    18.772086776   1   0   0 # o2h
     82      1   5  0.410000    21.124592028    43.003878664    19.713078833   1   0   0 # h1o
     83      1   6  0.054000    22.358885297    45.145644855    17.257313993   1   0   0 # c4o
     84      1   3  0.053000    21.281580296    45.157975178    17.480537534   1   0   0 # h1
     85      1   3  0.053000    22.448386968    44.880898404    16.193613301   1   0   0 # h1
     86      1   4 -0.570000    22.910690461    46.459090314    17.405306389   1   0   0 # o2h
     87      1   5  0.410000    22.406662204    46.896566883    18.097721082   1   0   0 # h1o
     88      1   4 -0.570000    25.822577337    41.161934335    19.318072853   1   0   0 # o2h
     89      1   5  0.410000    26.021574634    41.625105391    20.124285726   1   0   0 # h1o
     90      1   1 -0.320000    20.950223189    40.090360792    17.697064373   1   0   0 # o2e
     91      1   2  0.107000    20.548766017    37.547344171    17.854035087   1   0   0 # c43o
     92      1   3  0.053000    20.301775576    36.487158478    18.010838536   1   0   0 # h1
     93      1   2  0.107000    19.269193415    38.313586139    17.551910756   1   0   0 # c43o
     94      1   3  0.053000    18.881144383    37.975525843    16.574512972   1   0   0 # h1
     95      1   2  0.107000    19.554212050    39.815092449    17.575515152   1   0   0 # c43o
     96      1   3  0.053000    19.015721037    40.231570944    18.447017336   1   0   0 # h1
     97      1   2  0.267000    21.465218403    39.615061950    18.945179344   1   0   0 # c43o
     98      1   3  0.053000    20.919977472    40.117631982    19.765697715   1   0   0 # h1
     99      1   2  0.107000    21.194527383    38.100450329    19.121213724   1   0   0 # c43o
    100      1   3  0.053000    22.155369166    37.586881902    19.264570226   1   0   0 # h1
    101      1   1 -0.160000    22.848826701    39.942096469    19.078660414   1   0   0 # o2e
    102      1   4 -0.570000    21.454811138    37.569487819    16.746910829   1   0   0 # o2h
    103      1   5  0.410000    21.748215783    38.476919461    16.669176506   1   0   0 # h1o
    104      1   1 -0.160000    18.299466448    38.023967058    18.560205922   1   0   0 # o2e
    105      1   6  0.054000    19.079502747    40.571107741    16.380242830   1   0   0 # c4o
    106      1   3  0.053000    18.009261880    40.392300336    16.216238494   1   0   0 # h1
    107      1   3  0.053000    19.624532994    40.227106852    15.482343686   1   0   0 # h1
    108      1   4 -0.570000    19.245196155    41.979723902    16.542176938   1   0   0 # o2h
    109      1   5  0.410000    20.026634841    42.084545659    17.095520192   1   0   0 # h1o
    110      1   4 -0.570000    20.433914751    37.766127141    20.296787960   1   0   0 # o2h
    111      1   5  0.410000    19.605553517    38.243102731    20.241164754   1   0   0 # h1o
    112      1   1 -0.320000    15.307617918    37.000914325    21.145924986   1   0   0 # o2e
    113      1   2  0.107000    15.146759795    36.595070238    18.352487398   1   0   0 # c43o
    114      1   3  0.053000    15.403524913    35.523231766    18.238596515   1   0   0 # h1
    115      1   2  0.107000    13.912847918    36.689800197    19.214776077   1   0   0 # c43o
    116      1   3  0.053000    13.613991101    37.754323516    19.252571740   1   0   0 # h1
    117      1   2  0.107000    14.199159519    36.258423086    20.637803505   1   0   0 # c43o
    118      1   3  0.053000    14.426025695    35.176070873    20.646970793   1   0   0 # h1
    119      1   2  0.267000    16.504902912    36.745262176    20.414145751   1   0   0 # c43o
    120      1   3  0.053000    16.648220451    35.647865278    20.341047896   1   0   0 # h1
    121      1   2  0.107000    16.321195525    37.280274833    19.003379763   1   0   0 # c43o
    122      1   3  0.053000    16.069148326    38.355051152    19.079197517   1   0   0 # h1
    123      1   4 -0.570000    14.916166738    37.136467489    17.050343353   1   0   0 # o2h
    124      1   5  0.410000    14.069191775    36.790643009    16.780950953   1   0   0 # h1o
    125      1   1 -0.160000    12.828749225    35.925835219    18.680175570   1   0   0 # o2e
    126      1   6  0.054000    13.021858848    36.513500507    21.542648384   1   0   0 # c4o
    127      1   3  0.053000    80.299720676    36.127685757    21.098177567   0   0   0 # h1
    128      1   3  0.053000    12.905953663    37.604139370    21.624823178   1   0   0 # h1
    129      1   4 -0.570000    13.143004589    36.047382953    22.884249824   1   0   0 # o2h
    130      1   5  0.410000    13.126682681    35.097954911    22.856953870   1   0   0 # h1o
    131      1   1 -0.160000    17.519060668    37.159483557    18.232717630   1   0   0 # o2e
    132      1   4 -0.570000    17.635137397    37.265657864    21.101868471   1   0   0 # o2h
    133      1   5  0.410000    18.364451764    36.723814900    20.818003856   1   0   0 # h1o
    134      1   1 -0.320000    78.170725042    36.935961283    17.022741599   0   0   0 # o2e
    135      1   2  0.107000    78.138924688    34.420986418    16.153406082   0   0   0 # c43o
    136      1   3  0.053000    77.067774934    34.604864737    16.369339848   0   0   0 # h1
    137      1   2  0.107000    78.582340117    35.416111803    15.107047104   0   0   0 # c43o
    138      1   3  0.053000    79.651208975    35.218002956    14.924519887   0   0   0 # h1
    139      1   2  0.107000    78.376070556    36.848572890    15.605014256   0   0   0 # c43o
    140      1   3  0.053000    77.405201223    37.163817789    15.193462907   0   0   0 # h1
    141      1   2  0.267000    79.057926963    36.112603083    17.792976498   0   0   0 # c43o
    142      1   3  0.053000    78.685353539    36.253796431    18.817825967   0   0   0 # h1
    143      1   2  0.107000    78.898334245    34.625763331    17.448138689   0   0   0 # c43o
    144      1   3  0.053000    79.911732829    34.219377385    17.288222565   0   0   0 # h1
    145      1   4 -0.570000    78.299593704    33.056300063    15.740085693   0   0   0 # o2h
    146      1   5  0.410000    77.608310725    32.890599562    15.098419210   0   0   0 # h1o
    147      1   1 -0.160000    77.888728358    35.179165941    13.872038325   0   0   0 # o2e
    148      1   6  0.054000    79.396422034    37.845683800    15.105390653   0   0   0 # c4o
    149      1   3  0.053000    79.579357976    37.713403345    14.023027186   0   0   0 # h1
    150      1   3  0.053000    80.353948368    37.667507952    15.611763903   0   0   0 # h1
    151      1   4 -0.570000    79.072744593    39.206913388    15.378129264   0   0   0 # o2h
    152      1   5  0.410000    78.327842984    39.421214436    14.819861447   0   0   0 # h1o
    153      1   1 -0.160000    80.439023964    36.508766081    17.805218486   0   0   0 # o2e
    154      1   4 -0.570000    78.317441378    33.927956123    18.560512792   0   0   0 # o2h
    155      1   5  0.410000    78.301476901    33.004136127    18.324389426   0   0   0 # h1o
    156      1   1 -0.320000    78.535916482    34.610995595     8.981608248   0   0   0 # o2e
    157      1   2  0.107000    78.672919891    34.972496948    11.812142112   0   0   0 # c43o
    158      1   3  0.053000    79.223083818    34.087517583    12.179650829   0   0   0 # h1
    159      1   2  0.107000    79.572414149    35.699553618    10.840593668   0   0   0 # c43o
    160      1   3  0.053000    79.016461043    36.592083999    10.505254135   0   0   0 # h1
    161      1   2  0.107000    79.808100477    34.847641295     9.601258249   0   0   0 # c43o
    162      1   3  0.053000    80.272831091    33.888312426     9.905130495   0   0   0 # h1
    163      1   2  0.267000    77.678100632    33.797048485     9.792460419   0   0   0 # c43o
    164      1   3  0.053000    78.183511610    32.837040380    10.015849834   0   0   0 # h1
    165      1   2  0.107000    77.413438448    34.485322449    11.129563086   0   0   0 # c43o
    166      1   3  0.053000    76.801945871    35.379582570    10.893096414   0   0   0 # h1
    167      1   1 -0.160000    78.375841574    35.796524214    12.950671974   0   0   0 # o2e
    168      1   4 -0.570000    12.545648274    36.237140897    11.422065450   1   0   0 # o2h
    169      1   5  0.410000    13.126437158    35.513764589    11.663673228   1   0   0 # h1o
    170      1   6  0.054000    12.521004278    35.453472293     8.582657563   1   0   0 # c4o
    171      1   3  0.053000    13.465977973    35.782395091     9.055686179   1   0   0 # h1
    172      1   3  0.053000    80.256546138    36.346838528     8.142319343   0   0   0 # h1
    173      1   4 -0.570000    12.812513155    34.497787543     7.563616352   1   0   0 # o2h
    174      1   5  0.410000    13.226570358    34.971934770     6.848916862   1   0   0 # h1o
    175      1   1 -0.160000    76.424885117    33.497297000     9.156263658   0   0   0 # o2e
    176      1   4 -0.570000    76.649038346    33.608794284    11.971149277   0   0   0 # o2h
    177      1   5  0.410000    76.319135410    34.160207461    12.675866954   0   0   0 # h1o
    178      1   1 -0.320000    74.118970810    32.383981097     7.775751682   0   0   0 # o2e
    179      1   2 -0.053000    75.240143186    29.811563396     7.249427700   0   0   0 # c43o
    180      1   3  0.053000    75.175046737    28.710474166     7.242784100   0   0   0 # h1
    181      1   2  0.107000    74.200294212    30.428204307     6.324710076   0   0   0 # c43o
    182      1   3  0.053000    74.426195966    30.104639175     5.291421721   0   0   0 # h1
    183      1   2  0.107000    74.288382145    31.927035786     6.424110892   0   0   0 # c43o
    184      1   3  0.053000    73.411926421    32.352139762     5.908417258   0   0   0 # h1
    185      1   2  0.267000    75.057935651    31.834582441     8.717063489   0   0   0 # c43o
    186      1   3  0.053000    74.634880590    32.100115653     9.698476577   0   0   0 # h1
    187      1   2  0.107000    75.131426938    30.310657669     8.670106640   0   0   0 # c43o
    188      1   3  0.053000    76.054627398    30.040486074     9.211989849   0   0   0 # h1
    189      1   7  0.000000    78.413791782    30.756606511     6.112940161   0   0   0 # o1-
    190      1   1 -0.160000    72.864608919    30.001304935     6.606580498   0   0   0 # o2e
    191      1   6  0.054000    75.486307229    32.458210705     5.690147239   0   0   0 # c4o
    192      1   3  0.053000    75.427854461    32.065471359     4.661611837   0   0   0 # h1
    193      1   3  0.053000    76.422695998    32.066838845     6.124020318   0   0   0 # h1
    194      1   4 -0.570000    75.557543720    33.877257136     5.577219389   0   0   0 # o2h
    195      1   5  0.410000    75.758747562    34.184847669     6.476824348   0   0   0 # h1o
    196      1   1 -0.160000    76.383147583    32.388954158     8.663909468   0   0   0 # o2e
    197      1   4 -0.570000    74.041169399    29.667959485     9.334359385   0   0   0 # o2h
    198      1   5  0.410000    74.433635179    29.159437262    10.047045657   0   0   0 # h1o
    199      1   1 -0.320000    68.424059180    30.936513658     5.665382243   0   0   0 # o2e
    200      1   2  0.107000    70.318301832    28.987051412     6.392263248   0   0   0 # c43o
    201      1   3  0.053000    70.613735780    28.514900089     5.433560728   0   0   0 # h1
    202      1   2  0.107000    70.718599398    30.435584725     6.282096329   0   0   0 # c43o
    203      1   3  0.053000    70.645305392    30.899954063     7.282235682   0   0   0 # h1
    204      1   2  0.107000    69.793876739    31.172279240     5.324600321   0   0   0 # c43o
    205      1   3  0.053000    69.999017954    30.789015821     4.309490436   0   0   0 # h1
    206      1   2  0.267000    68.052429479    29.556505198     5.534605537   0   0   0 # c43o
    207      1   3  0.053000    68.327995036    29.183675284     4.528439226   0   0   0 # h1
    208      1   2  0.107000    68.845295147    28.759790848     6.548741150   0   0   0 # c43o
    209      1   3  0.053000    68.546928536    29.132707803     7.547635439   0   0   0 # h1
    210      1   1 -0.160000    72.076914090    30.510192064     5.834290113   0   0   0 # o2e
    211      1   6  0.054000    69.950369190    32.666036528     5.276383888   0   0   0 # c4o
    212      1   3  0.053000    70.969359130    32.968552791     4.998659577   0   0   0 # h1
    213      1   3  0.053000    69.739981348    33.096480892     6.272568121   0   0   0 # h1
    214      1   4 -0.570000    69.098184602    33.284986337     4.313833842   0   0   0 # o2h
    215      1   5  0.410000    68.204686715    33.097102891     4.604107824   0   0   0 # h1o
    216      1   1 -0.160000    66.647809836    29.345350639     5.692903832   0   0   0 # o2e
    217      1   4 -0.570000    68.548431636    27.358663215     6.459856697   0   0   0 # o2h
    218      1   5  0.410000    69.105730316    26.962093078     7.130296729   0   0   0 # h1o
    219      1   1 -0.320000    63.297966057    30.026166719     2.997432369   0   0   0 # o2e
    220      1   2  0.107000    63.777572301    29.245053489     5.544724697   0   0   0 # c43o
    221      1   3  0.053000    63.982700802    28.270198818     5.062570135   0   0   0 # h1
    222      1   2  0.107000    64.763137477    30.239450146     4.957365866   0   0   0 # c43o
    223      1   3  0.053000    64.934593078    31.024110059     5.713473358   0   0   0 # h1
    224      1   2  0.107000    64.243942585    30.866919087     3.670507158   0   0   0 # c43o
    225      1   3  0.053000    65.100772752    30.901915768     2.978010653   0   0   0 # h1
    226      1   2  0.267000    62.088342041    29.844681365     3.756762883   0   0   0 # c43o
    227      1   3  0.053000    61.679906259    28.906746388     3.351962298   0   0   0 # h1
    228      1   2  0.107000    62.341298849    29.604917164     5.255746816   0   0   0 # c43o
    229      1   3  0.053000    62.149836988    30.553160676     5.793726192   0   0   0 # h1
    230      1   1 -0.160000    66.038332549    29.634479939     4.686816528   0   0   0 # o2e
    231      1   6  0.054000    63.771309048    32.291249492     3.802449774   0   0   0 # c4o
    232      1   3  0.053000    64.581582710    32.914127835     4.207940864   0   0   0 # h1
    233      1   3  0.053000    62.925184233    32.370781106     4.509030318   0   0   0 # h1
    234      1   4 -0.570000    63.414448421    32.873289447     2.553021280   0   0   0 # o2h
    235      1   5  0.410000    62.769896089    32.280151230     2.173171868   0   0   0 # h1o
    236      1   1 -0.160000    61.086423093    30.851106752     3.547841042   0   0   0 # o2e
    237      1   4 -0.570000    61.486334490    28.593741314     5.821101182   0   0   0 # o2h
    238      1   5  0.410000    60.585829355    28.887607151     5.672720509   0   0   0 # h1o
    239      1   1 -0.320000    56.946966512    31.393384564     2.722416802   0   0   0 # o2e
    240      1   2  0.107000    58.041665877    31.379636086     5.184732966   0   0   0 # c43o
    241      1   3  0.053000    58.629235971    31.163738740     6.095974265   0   0   0 # h1
    242      1   2  0.107000    59.030723280    31.550165161     4.040492886   0   0   0 # c43o
    243      1   3  0.053000    59.430384412    32.576780244     4.115047458   0   0   0 # h1
    244      1   2  0.107000    58.371319704    31.286576413     2.683378838   0   0   0 # c43o
    245      1   3  0.053000    58.653401020    30.257645705     2.394489790   0   0   0 # h1
    246      1   2  0.267000    56.312777547    30.467859016     3.615887276   0   0   0 # c43o
    247      1   3  0.053000    56.205115986    29.509482610     3.083638535   0   0   0 # h1
    248      1   2  0.107000    57.121258721    30.201443470     4.905524613   0   0   0 # c43o
    249      1   3  0.053000    56.404753845    30.111124351     5.740298206   0   0   0 # h1
    250      1   1 -0.160000    60.117973209    30.636509198     4.243147935   0   0   0 # o2e
    251      1   6  0.054000    58.853395933    32.209869554     1.600947430   0   0   0 # c4o
    252      1   3  0.053000    59.950997748    32.200368774     1.541350097   0   0   0 # h1
    253      1   3  0.053000    58.555017488    33.246158062     1.849105384   0   0   0 # h1
    254      1   4 -0.570000    58.396548880    31.878283577    68.505522310   0   0  -1 # o2h
    255      1   5  0.410000    57.457085761    32.072627634    68.501374585   0   0  -1 # h1o
    256      1   1 -0.160000    54.988573161    30.906908429     3.944078063   0   0   0 # o2e
    257      1   4 -0.570000    57.945839364    29.021513883     4.903839809   0   0   0 # o2h
    258      1   5  0.410000    57.360003308    28.261504278     4.875637113   0   0   0 # h1o
    259      1   1 -0.320000    51.535985163    29.739778564     6.721203975   0   0   0 # o2e
    260      1   2  0.107000    52.045617507    30.851955563     4.438122059   0   0   0 # c43o
    261      1   3  0.053000    52.349569842    31.222754564     3.448463025   0   0   0 # h1
    262      1   2 -0.053000    51.285763487    29.549199311     4.302912709   0   0   0 # c43o
    263      1   3  0.053000    50.416003841    29.706375107     3.645399553   0   0   0 # h1
    264      1   2  0.107000    50.880221361    29.006732894     5.678901441   0   0   0 # c43o
    265      1   3  0.053000    51.171392802    27.939250338     5.734247088   0   0   0 # h1
    266      1   2  0.267000    52.942708547    29.766364001     6.494630023   0   0   0 # c43o
    267      1   3  0.053000    53.290908552    28.742515142     6.257784988   0   0   0 # h1
    268      1   2  0.107000    53.286545041    30.648149121     5.289558318   0   0   0 # c43o
    269      1   3  0.053000    53.617038943    31.635279933     5.653950710   0   0   0 # h1
    270      1   7  0.000000    53.261233908    27.385104071     2.918246182   0   0   0 # o1-
    271      1   6  0.054000    49.403528782    29.058177884     5.948107759   0   0   0 # c4o
    272      1   3  0.053000    48.838622251    28.598839644     5.116013630   0   0   0 # h1
    273      1   3  0.053000    49.086390922    30.114172032     6.025612769   0   0   0 # h1
    274      1   4 -0.570000    49.114821185    28.366385733     7.161477156   0   0   0 # o2h
    275      1   5  0.410000    48.176332734    28.425470088     7.307267854   0   0   0 # h1o
    276      1   1 -0.160000    54.345193271    30.060827277     4.524335134   0   0   0 # o2e
    277      1   1 -0.320000    49.972822193    29.470616308    67.967069592   0   0  -1 # o2e
    278      1   2  0.107000    49.348439680    27.158453094    69.259859315   0   0  -1 # c43o
    279      1   3  0.053000    48.947845891    26.139636716    69.348009839   0   0  -1 # h1
    280      1   2  0.107000    50.514354848    27.079685036    68.284996404   0   0  -1 # c43o
    281      1   3  0.053000    51.325677519    26.539662434    68.806931017   0   0  -1 # h1
    282      1   2  0.107000    50.977770050    28.458007674    67.820544327   0   0  -1 # c43o
    283      1   3  0.053000    51.228827464    28.367380581    66.747507514   0   0  -1 # h1
    284      1   2  0.107000    48.678773386    28.962873768    67.640735372   0   0  -1 # c43o
    285      1   3  0.053000    48.703341758    28.396208751    66.692307535   0   0  -1 # h1
    286      1   2  0.107000    48.213595398    28.069552822    68.784817920   0   0  -1 # c43o
    287      1   3  0.053000    48.008163835    28.748080999     1.418142292   0   0   0 # h1
    288      1   7  0.000000    46.560915205    31.523905982    67.314975264   0   0  -1 # o1-
    289      1   4 -0.570000    47.021561041    27.321152369    68.513454969   0   0  -1 # o2h
    290      1   5  0.410000    46.297224614    27.926635396    68.633155555   0   0  -1 # h1o
    291      1   4 -0.570000    49.802168468    27.476899075     2.371827900   0   0   0 # o2h
    292      1   5  0.410000    50.188826057    28.344499118     2.307767535   0   0   0 # h1o
    293      1   1 -0.160000    50.134109230    26.287029917    67.155794623   0   0  -1 # o2e
    294      1   6  0.054000    52.195005756    28.973784661    68.525862250   0   0  -1 # c4o
    295      1   3  0.053000    53.057743731    28.311468270    68.363052328   0   0  -1 # h1
    296      1   3  0.053000    52.016124958    29.011448771     1.401833029   0   0   0 # h1
    297      1   4 -0.570000    52.591878415    30.263631953    68.067038879   0   0  -1 # o2h
    298      1   5  0.410000    51.812704106    30.808653000    68.176964184   0   0  -1 # h1o
    299      1   1 -0.320000    51.857618615    23.533469317    63.938458209   0   0  -1 # o2e
    300      1   2  0.107000    51.234733767    26.252551771    64.280017179   0   0  -1 # c43o
    301      1   3  0.053000    52.153551436    26.770992695    64.619908250   0   0  -1 # h1
    302      1   2  0.107000    51.543768754    25.660099687    62.923952832   0   0  -1 # c43o
    303      1   3  0.053000    50.589723828    25.287423831    62.523417714   0   0  -1 # h1
    304      1   2  0.107000    52.470904718    24.473355409    63.056537083   0   0  -1 # c43o
    305      1   3  0.053000    53.441642992    24.819323370    63.462452947   0   0  -1 # h1
    306      1   2  0.267000    51.782832403    24.014717153    65.280505837   0   0  -1 # c43o
    307      1   3  0.053000    52.792112727    24.326753730    65.607263711   0   0  -1 # h1